                         Program Version 3.0.1 -  RELEASE  -
|  1> #orca block
|  2>
|  3>
|  4> ! SP B3LYP 6-31G(d)
|  5>
|  6> * xyz 0 1
|  7> H  -2.7382532 -2.24052954 -0.25617463
|  8> H  -2.00264154 -2.31274401 -0.22067022
|  9>
| 10> *
| 11>
| 12>
| 13>                          ****END OF INPUT****

CARTESIAN COORDINATES (ANGSTROEM)
---------------------------------
  H     -2.738253   -2.240530   -0.256175
  H     -2.002642   -2.312744   -0.220670

 Total Charge           Charge          ....    0
 Multiplicity           Mult            ....    1
 Number of Electrons    NEL             ....    2
 Basis Dimension        Dim             ....    4

ORBITAL ENERGIES
----------------

  NO   OCC          E(Eh)            E(eV)
   0   2.0000      -0.430936       -11.7264
   1   0.0000       0.104622         2.8469
   2   0.0000       0.583384        15.8747
   3   0.0000       1.114423        30.3250

MULLIKEN ATOMIC CHARGES
-----------------------
   0 H :   -0.000000
   1 H :    0.000000
Sum of atomic charges:   -0.0000000

LOEWDIN ATOMIC CHARGES
----------------------
   0 H :   -0.000000
   1 H :    0.000000

  Mayer bond orders larger than 0.1
B(  0-H ,  1-H ) :   1.0000

FINAL SINGLE POINT ENERGY        -1.168709924015

DIPOLE MOMENT
-------------
                                X             Y             Z
Electronic contribution:      0.00000      -0.00000       0.00000
Nuclear contribution   :      0.00000       0.00000       0.00000
                        -----------------------------------------
Total Dipole Moment    :      0.00000      -0.00000       0.00000
                        -----------------------------------------
Magnitude (a.u.)       :      0.00000
Magnitude (Debye)      :      0.00000

                             ****ORCA TERMINATED NORMALLY****
TOTAL RUN TIME: 0 days 0 hours 0 minutes 1 seconds 74 msec
