                         Program Version 3.0.1 -  RELEASE  -
|  1> #orca block
|  2>
|  3>
|  4> ! SP B3LYP 6-31G(d)
|  5>
|  6> * xyz 0 1
|  7> H  -2.92665662 -3.20002564 -0.0
|  8> H  -2.18974503 -3.26756309 0.0
|  9>
| 10> *
| 11>
| 12>
| 13>                          ****END OF INPUT****

CARTESIAN COORDINATES (ANGSTROEM)
---------------------------------
  H     -2.926657   -3.200026   -0.000000
  H     -2.189745   -3.267563    0.000000

 Total Charge           Charge          ....    0
 Multiplicity           Mult            ....    1
 Number of Electrons    NEL             ....    2
 Basis Dimension        Dim             ....    4

ORBITAL ENERGIES
----------------

  NO   OCC          E(Eh)            E(eV)
   0   2.0000      -0.430922       -11.7260
   1   0.0000       0.104664         2.8481
   2   0.0000       0.583386        15.8748
   3   0.0000       1.114462        30.3260

MULLIKEN ATOMIC CHARGES
-----------------------
   0 H :   -0.000000
   1 H :    0.000000
Sum of atomic charges:   -0.0000000

LOEWDIN ATOMIC CHARGES
----------------------
   0 H :   -0.000000
   1 H :    0.000000

  Mayer bond orders larger than 0.1
B(  0-H ,  1-H ) :   1.0000

FINAL SINGLE POINT ENERGY        -1.168709884562

DIPOLE MOMENT
-------------
                                X             Y             Z
Electronic contribution:      0.00000      -0.00000      -0.00000
Nuclear contribution   :     -0.00000       0.00000       0.00000
                        -----------------------------------------
Total Dipole Moment    :      0.00000      -0.00000       0.00000
                        -----------------------------------------
Magnitude (a.u.)       :      0.00000
Magnitude (Debye)      :      0.00000

                             ****ORCA TERMINATED NORMALLY****
TOTAL RUN TIME: 0 days 0 hours 0 minutes 1 seconds 269 msec
