                         Program Version 3.0.1 -  RELEASE  -
|  1> #orca block
|  2>
|  3>
|  4> ! SP B3LYP 6-31G(d)
|  5>
|  6> * xyz 0 1
|  7> H  -2.92665662  -3.20002564  -0.0
|  8> H  -2.18974503  -3.26756309  0.0
|  9> H  -2.7382532  -2.24052954  -0.25617463
| 10> H  -2.00264154  -2.31274401  -0.22067022
| 11>
| 12> *
| 13>
| 14>
| 15>                          ****END OF INPUT****

CARTESIAN COORDINATES (ANGSTROEM)
---------------------------------
  H     -2.926657   -3.200026   -0.000000
  H     -2.189745   -3.267563    0.000000
  H     -2.738253   -2.240530   -0.256175
  H     -2.002642   -2.312744   -0.220670

 Total Charge           Charge          ....    0
 Multiplicity           Mult            ....    1
 Number of Electrons    NEL             ....    4
 Basis Dimension        Dim             ....    8

ORBITAL ENERGIES
----------------

  NO   OCC          E(Eh)            E(eV)
   0   2.0000      -0.667319       -18.1587
   1   2.0000      -0.231599        -6.3021
   2   0.0000      -0.026364        -0.7174
   3   0.0000       0.261410         7.1133
   4   0.0000       0.507143        13.8001
   5   0.0000       0.620712        16.8904
   6   0.0000       0.917576        24.9685

MULLIKEN ATOMIC CHARGES
-----------------------
   0 H :   -0.024112
   1 H :    0.022449
   2 H :    0.023770
   3 H :   -0.022107
Sum of atomic charges:    0.0000000

LOEWDIN ATOMIC CHARGES
----------------------
   0 H :   -0.042305
   1 H :    0.040978
   2 H :    0.039332
   3 H :   -0.038005

  Mayer bond orders larger than 0.1
B(  0-H ,  1-H ) :   1.0994 B(  0-H ,  2-H ) :  -0.1090 B(  0-H ,  3-H ) :  -0.1090
B(  1-H ,  3-H ) :  -0.1092 B(  2-H ,  3-H ) :   1.0992

FINAL SINGLE POINT ENERGY        -2.105021923859

DIPOLE MOMENT
-------------
                                X             Y             Z
Electronic contribution:      0.00136       0.00322      -0.00262
Nuclear contribution   :      0.00000       0.00000       0.00000
                        -----------------------------------------
Total Dipole Moment    :      0.00136       0.00322      -0.00262
                        -----------------------------------------
Magnitude (a.u.)       :      0.00437
Magnitude (Debye)      :      0.01110

                             ****ORCA TERMINATED NORMALLY****
TOTAL RUN TIME: 0 days 0 hours 0 minutes 1 seconds 293 msec
